PLATE,NROW,NCOL,CNAME,SMILES,FORMULA,MW (as put into the well),Formula (as seen in MS),Neutral mass,M+H,M-H,CHARGE,PARENT_CID(KEGG),CAS,CHEBI,HMDB,PC_CID,PC_SID,METLIN_ID
4,G,12,URIDINE 5'-DIPHOSPHATE,C(O[P](O[P](O)(=O)O)(=O)O)[C@H]1[C@@H]([C@@H]([C@H](O1)N2C=CC(NC2=O)=O)O)O,C9H14N2O12P2,467.99231,C9H14N2O12P2,404.00220,405.01000,402.99440,,C00015,27821-45-0,17659,,6031,3317,
4,H,1,GLYCEROL 2-PHOSPHATE,C(C(CO)OP(=O)(O)O)O,C3H9O6P,233.98813,C3H9O6P,172.01367,173.02147,171.00587,,C02979,819-83-0,17270,,2526,5889,
4,H,2,ALPHA-D-GLUCOSE 1-PHOSPHATE,C(C1C(C(C(C(O1)OP(=O)(O)O)O)O)O)O,C6H13O9P,322.00418,C6H13O9P,260.02972,261.03752,259.02192,,C00103,56401-20-8,16077,,65533,3403,
4,H,3,D-GLUCOSAMINE 6-SULFATE,O=S(=O)(O)OC[C@H]1O[C@@H](O)[C@H](N)[C@@H](O)[C@@H]1O,C6H13NO8S,259.03619,C6H13NO8S,259.03619,260.04399,258.02839,,CA1422,91674-26-9,743540,HMDB00592,72361,,5571
5,A,1,3-METHYGLUTARIC ACID,O=C(O)CC(C)CC(=O)O,C6H10O4,146.05791,C6H10O4,146.05791,147.06571,145.05011,,CA1192,626-51-7,,HMDB00752,12284,,5720
5,A,2,SORBATE,O=C(O)\C=C\C=C\C,C6H8O2,150.00831,C6H8O2,112.05243,113.06023,111.04463,,CA1411,24634-61-5,,,643460,,
5,A,3,MONO-ETHYL MALONATE,C(C(=O)O)C(=O)O,C3H4O4,132.04226,C5H8O4,132.04226,133.05006,131.03446,,C00383,1071-46-1,30794,HMDB00576,70615,3673,5558
5,A,4,DIMETHYL SULFIDE,S(C)C,C2H6S,62.01902,C2H6S,62.01902,63.02682,61.01122,,C00580,75-18-3,17437,HMDB02303,1068,3859,6630
5,A,5,4-HYDROXYBENZOATE,C1=CC(=CC=C1C(=O)O)O,C7H6O3,138.0317,C7H6O3,138.03170,139.03950,137.02390,,C00156,99-96-7,30763,HMDB00500,135,3456,5486
5,A,6,TYRAMINE,C1=CC(=CC=C1CCN)O,C8H11NO,137.08406,C8H11NO,137.08406,138.09186,136.07626,,C00483,51-67-2,15760,HMDB00306,5610,3766,60
5,A,7,CORTISOL,[C@H]34[C@H]2[C@@H]([C@@]1(C(=CC(=O)CC1)CC2)C)[C@@H](O)C[C@@]3([C@](C(CO)=O)(O)CC4)C,C21H30O5,362.20933,C21H30O5,362.20933,363.21713,361.20153,,C00735,50-23-7,17650,HMDB00063,657311,3998,5124
5,A,8,PRENOL,OC\C=C(/C)C,C5H10O,86.07317,C5H10O,86.07317,87.08097,85.06537,,C01390,556-82-1,16019,,11173,4583,
5,A,9,3-HYDROXYBENZALDEHYDE,O=Cc1cc(O)ccc1,C7H6O2,122.03678,C7H6O2,122.03678,123.04458,121.02898,,C03067,100-83-4,16207,,101,5967,
5,A,10,XANTHURENIC ACID,C1=CC2=C(C(=C1)O)NC(=CC2=O)C(=O)O,C10H7NO4,205.03751,C10H7NO4,205.03751,206.04531,204.02971,,C02470,59-00-7,217069,HMDB00881,5699,5485,5841
5,A,11,2-METHYLPROPANAL OXIME,N(/O)=C/C(C)C,C4H9NO,87.06841,C4H9NO,87.06841,88.07621,86.06061,,C03219,151-00-8,17502,,5324282,6092,64530
5,A,12,PROPIONATE,CCC(=O)O,C3H6O2,96.01873,C3H6O2,74.03678,75.04458,73.02898,,C00163,137-40-6,30768,,1032,3463,
5,B,1,TRIMETHYLAMINE,CN(C)C,C3H9N,95.05018,C3H9N,59.07350,60.08130,58.06570,,C00565,593-81-7,18139,,1146,3844,
5,B,2,MELATONIN,CC(=O)NCCC1=CNC2=C1C=C(C=C2)OC,C13H16N2O2,232.12118,C13H16N2O2,232.12118,233.12898,231.11338,,C01598,73-31-4,16796,HMDB01389,896,4752,73
5,B,3,MALEIC ACID,C(=CC(=O)O)C(=O)O,C4H4O4,116.01096,C4H4O4,116.01096,117.01876,115.00316,,C01384,110-16-7,18300,HMDB00176,444266,4579,4189
5,B,4,PENTANOATE,CCCCC(=O)O,C5H10O2,102.06808,C5H10O2,102.06808,103.07588,101.06028,,C00803,109-52-4,17418,HMDB00892,7991,4061,110
5,B,5,PROPANOATE,CCC(=O)O,C3H6O2,74.03678,C3H6O2,74.03678,75.04458,73.02898,,C00163,79-09-4,30768,HMDB00237,1032,3463,3215
5,B,6,BILIRUBIN,CC1=C(NC(=C1CCC(=O)O)CC2=C(C(=C(N2)C=C3C(=C(C(=O)N3)C)C=C)C)CCC(=O)O)C=C4C(=C(C(=O)N4)C=C)C,C33H36N4O6,584.26349,C33H36N4O6,584.26349,585.27129,583.25569,,C00486,635-65-4,16990,HMDB00054,5280352,3769,81
5,B,7,(S)-NICOTINE,n1cc(ccc1)C2N(C)CCC2,C10H14N2,162.1157,C10H14N2,162.11570,163.12350,161.10790,,C16150,54-11-5,17688,HMDB01010,89594,4007,
5,B,8,BUTANAL,CCCC=O,C4H8O,72.05752,C4H8O,72.05752,73.06532,71.04972,,C01412,123-72-8,15743,HMDB03543,261,4600,6947
5,B,9,4-HYDROXY-2-QUINOLINECARBOXYLIC ACID,C1=CC=C2C(=C1)C(=O)C=C(N2)C(=O)O,C10H7NO3,189.04259,C10H7NO3,189.04259,190.05039,188.03479,,C01717,492-27-3,18344,HMDB00715,3845,4854,5683
5,B,10,2-METHYLPROPANOATE,CC(C)C(=O)O,C4H8O2,88.05243,C4H8O2,88.05243,89.06023,87.04463,,C02632,79-31-2,16135,HMDB01873,6590,5612,106
5,B,11,3-HYDROXYBENZYL ALCOHOL,OCc1cc(O)ccc1,C7H8O2,124.05243,C7H8O2,124.05243,125.06023,123.04463,,C03351,620-24-6,17069,,102,6192,65960
5,B,12,ANILINE,C1=CC=C(C=C1)N,C6H7N,93.05785,C6H7N,93.05785,94.06565,92.05005,,C00292,62-53-3,17296,HMDB03012,6115,3586,489
5,C,1,4-HYDROXYPHENYLACETATE,C1=CC(=CC=C1CC(=O)O)O,C8H8O3,152.04735,C8H8O3,152.04735,153.05515,151.03955,,C00642,156-38-7,18101,HMDB00020,127,3915,130
5,C,2,"3,5-DIIODO-L-TYROSINE",IC1=C(C(=CC(=C1)C[C@H](N)C(=O)O)I)O,C9H9I2NO3,468.88833,C9H13I2NO5,468.88833,469.89613,467.88053,,C01060,18835-59-1,15768,,9305,4299,
5,C,3,MANDELIC ACID,O=C(O)C(O)c1ccccc1,C8H8O3,152.04734,C8H8O3,152.04734,153.05514,151.03954,,CA1444,90-64-2,32800,HMDB00703,439616,,5671
5,C,4,TRYPTAMINE,C1=CC=C2C(=C1)C(=CN2)CCN,C10H12N2,160.10005,C10H12N2,160.10005,161.10785,159.09225,,C00398,61-54-1,16765,HMDB00303,1150,3688,325
5,C,5,BENZOATE,C1=CC=C(C=C1)C(=O)O,C7H6O2,122.03678,C7H6O2,122.03678,123.04458,121.02898,,C00180,65-85-0,30746,HMDB01870,243,3480,1297
5,C,6,GLUTARATE,C(CC(=O)O)CC(=O)O,C5H8O4,132.04226,C5H8O4,132.04226,133.05006,131.03446,,C00489,110-94-1,17859,HMDB00661,743,3772,3254
5,C,7,INDOLE-3-ACETATE,C1=CC=C2C(=C1)C(=CN2)CC(=O)O,C10H9NO2,175.06333,C10H9NO2,175.06333,176.07113,174.05553,,C00954,87-51-4,16411,HMDB00197,802,4205,5211
5,C,8,CAFFEATE,C1=CC(=C(C=C1C=CC(=O)O)O)O,C9H8O4,180.04226,C9H8O4,180.04226,181.05006,179.03446,,C01481,331-39-5,17395,HMDB01964,1549111,4652,3316
5,C,9,LUMICHROME,O=C2c1nc3cc(c(cc3nc1NC(=O)N2)C)C,C12H10N4O2,242.08038,C12H10N4O2,242.08038,243.08818,241.07258,,C01727,1086-80-2,17781,,5326566,4864,
5,C,10,6-CARBOXYHEXANOATE,C(CCC(=O)O)CCC(=O)O,C7H12O4,160.07356,C7H12O4,160.07356,161.08136,159.06576,,C02656,111-16-0,30531,HMDB00857,385,5629,3280
5,C,11,N-ACETYL-L-PHENYLALANINE,CC(=O)NC(CC1=CC=CC=C1)C(=O)O,C11H13NO3,207.08954,C11H13NO3,207.08954,208.09734,206.08174,,C03519,2018-61-3,16259,HMDB00512,74839,6328,5498
5,C,12,AMYLOSE,COC1C(OC(C(C1O)O)OC2C(OC(C(C2O)O)OC)CO)CO,C14H26O11,167.03781,C5H11O4S,167.03781,168.04561,166.03001,,C00718,9005-82-7,28102,HMDB03403,53477771,3984,6917
5,D,1,L-TRYPTOPHANAMIDE,O=C([C@H](Cc1c[nH]c2c1cccc2)N)N,C11H13N3O,238.07472,C11H13N3O,203.10586,204.11366,202.09806,,C00977,5022-65-1,16533,,439356,4226,
5,D,2,PHENOL,C1=CC=C(C=C1)O,C6H6O,94.04187,C6H6O,94.04187,95.04967,93.03407,,C00146,108-95-2,15882,HMDB00228,996,3446,128
5,D,3,N-?-METHYLTRYPTAMINE,CN1C=C(C2=CC=CC=C21)CCN,C11H14N2,173.10787,C11H13N2,173.10787,174.11567,172.10007,,C06213,61-49-4,28136,HMDB04370,6088,8460,7057
5,D,4,OXALOACETATE,C(C(=O)C(=O)O)C(=O)O,C4H4O5,132.00588,C4H4O5,132.00588,133.01368,130.99808,,C00036,328-42-7,30744,HMDB00223,970,3338,123
5,D,5,"2,3-DIHYDROXYBENZOATE",C1=CC(=C(C(=C1)O)O)C(=O)O,C7H6O4,154.02661,C7H6O4,154.02661,155.03441,153.01881,,C00196,303-38-8,18026,HMDB00397,19,3496,5386
5,D,6,PROPENOATE,O=C(O)/C=C,C3H4O2,72.02113,C3H4O2,72.02113,73.02893,71.01333,,C00511,79-10-7,18308,,6581,3794,
5,D,7,INDOLE-3-ETHANOL,C1=CC=C2C(=C1)C(=CN2)CCO,C10H11NO,161.08406,C10H11NO,161.08406,162.09186,160.07626,,C00955,526-55-6,17890,HMDB03447,10685,4206,6932
5,D,8,FERULATE,COC1=C(C=CC(=C1)C=CC(=O)O)O,C10H10O4,194.05791,C10H10O4,194.05791,195.06571,193.05011,,C01494,1135-24-6,17620,,445858,4664,4156
5,D,9,GLYCOCHOLATE,OC(=O)CNC(=O)CC[C@@H](C)[C@H]2CC[C@H]3C4[C@H](O)C[C@@H]1C[C@H](O)CC[C@]1(C)[C@H]4C[C@H](O)[C@]23C,C26H43NO6,465.30904,C26H43NO6,465.30904,466.31684,464.30124,,C01921,475-31-0,17687,HMDB00138,10140,5027,5169
5,D,10,PHENYLETHANOLAMINE,C1=CC=C(C=C1)C(CN)O,C8H11NO,137.08406,C8H11NO,137.08406,138.09186,136.07626,,C02735,7568-93-6,16343,HMDB01065,1000,5696,59
5,D,11,THIOPURINE S-METHYLETHER,CSc1c2nc[nH]c2ncn1,C6H6N4S,166.03132,C6H6N4S,166.03132,167.03912,165.02352,,C03542,50-66-8,28279,,5778,51090940,
5,D,12,2-HYDROXY-4-(METHYLTHIO)BUTYRIC ACID,O=C(O)C(O)CCSC,C5H10O3S,338.01707,C5H11NO2S,149.05106,150.05886,148.04326,,CA1484,922-50-9,,,11427,,
5,E,1,PROPANAL,CCC=O,C3H6O,58.04187,C3H6O,58.04187,59.04967,57.03407,,C00479,123-38-6,17153,HMDB03366,527,3762,6906
5,E,2,BENZOATE,C1=CC=C(C=C1)C(=O)[O-].[Na+],C7H5NaO2,144.01873,C7H5O2,122.03678,123.04458,121.02898,,C00180,532-32-1,517055,,517055,24886163,
5,E,3,3-AMINO-5-HYDROXYBENZOIC ACID,c1c(cc(cc1N)O)C(=O)O,C7H7NO3,189.01927,C7H7NO3,153.04260,154.05040,152.03480,,C12107,14206-69-0,,,127115,14254,
5,E,4,CATECHOL,C1=CC=C(C(=C1)O)O,C6H6O2,110.03678,C6H6O2,110.03678,111.04458,109.02898,,C00090,120-80-9,18135,HMDB00957,289,3390,282
5,E,5,"3,4-DIHYDROXYBENZOATE",C1=CC(=C(C=C1C(=O)O)O)O,C7H6O4,154.02661,C7H6O4,154.02661,155.03441,153.01881,,C00230,99-50-3,36062,HMDB01856,72,3529,6350
5,E,6,CYCLOPENTANONE,O=C1CCCC1,C5H8O,84.05752,C5H8O,84.05752,85.06532,83.04972,,C00557,120-92-3,16486,,8452,3837,65520
5,E,7,PANTOLACTONE,O=C1OCC(C)(C)[C@H]1O,C6H10O3,130.063,C6H10O3,130.06300,131.07080,129.05520,,C01012,599-04-2,16719,,439368,4257,65551
5,E,8,GUAIACOL,COC1=CC=CC=C1O,C7H8O2,124.05243,C7H8O2,124.05243,125.06023,123.04463,,C01502,90-05-1,28591,HMDB01398,460,4671,6271
5,E,9,2-HYDROXYPHENYLACETIC ACID,O=C(O)C(O)c1ccccc1,C8H8O3,152.04734,C8H8O3,152.04734,153.05514,151.03954,,CA1444,611-71-2,17656,,11914,5080,5671
5,E,10,10-HYDROXYDECANOATE,O=C(O)CCCCCCCCCO,C10H20O3,188.14125,C10H20O3,188.14125,189.14905,187.13345,,C02774,1679-53-4,17409,,74300,5726,
5,E,11,"1,2-DIDECANOYL-SN-GLYCERO-3-PHOSPHOCHOLINE",C[N+](C)(C)CCOP([O-])(=O)OC[C@@H](COC(=O)CCCCCCCCC)OC(=O)CCCCCCCCC,C28H56NO8P,565.37436,C28H56NO8P,565.37436,566.38216,564.36656,,CA1375,3436-44-0,,,16219892,,45204
5,E,12,2-HYDROXYPYRIDINE,O=C1/C=C\C=C/N1,C5H5NO,95.03711,C5H5NO,95.03711,96.04491,94.02931,,C02502,142-08-5,16540,,8871,5514,65779
5,F,1,"3,4-DIHYDROXYPHENYLACETATE",C1=CC(=C(C=C1CC(=O)O)O)O,C8H8O4,168.04226,C8H8O4,168.04226,169.05006,167.03446,,C01161,102-32-9,41941,HMDB01336,547,4388,6170
5,F,2,N6-(DELTA2-ISOPENTENYL)-ADENINE,CC(=CCNC1=NC=NC2=C1NC=N2)C,C10H13N5,203.1171,C10H13N5,203.11710,204.12490,202.10930,,C04083,2365-40-4,17660,,92180,6776,
5,F,3,METHYL VANILLATE,COC1=C(C=CC(=C1)C(=O)O)O,C8H8O4,182.05791,C9H10O4,182.05791,183.06571,181.05011,,C06672,3943-74-6,30816,,8468,8897,
5,F,4,2-OXOBUTANOATE,CCC(=O)C(=O)O,C4H6O3,102.0317,C4H6O3,102.03170,103.03950,101.02390,,C00109,600-18-0,30831,HMDB00005,58,3409,
5,F,5,LIPOAMIDE,C1CSSC1CCCCC(=O)N,C8H15NOS2,205.05951,C8H15NOS2,205.05951,206.06731,204.05171,,C00248,940-69-2,17460,HMDB00962,863,3547,3372
5,F,6,3-HYDROXYANTHRANILATE,C1=CC(=C(C(=C1)O)N)C(=O)O,C7H7NO3,153.04259,C7H7NO3,153.04259,154.05039,152.03479,,C00632,548-93-6,15793,HMDB01476,86,3905,3275
5,F,7,3-(4-HYDROXYPHENYL)PYRUVATE,C1=CC(=CC=C1CC(=O)C(=O)O)O,C9H8O4,180.04226,C9H8O4,180.04226,181.05006,179.03446,,C01179,156-39-8 ,15999,HMDB00707,979,4406,5675
5,F,8,HEXANOATE,CCCCCC(=O)O,C6H12O2,116.08373,C6H12O2,116.08373,117.09153,115.07593,,C01585,142-62-1,30776,HMDB00535,8892,4740,5520
5,F,9,METHYLMALONATE,CC(C(=O)O)C(=O)O,C4H6O4,118.02661,C4H6O4,118.02661,119.03441,117.01881,,C02170,516-05-2,30860,HMDB00202,487,5245,3712
5,F,10,SEROTONIN CREATININE SULFATE COMPLEX,CN1CC(=O)N=C1N.C1=CC2=C(C=C1O)C(=CN2)CCN.O.OS(=O)(=O)O,C14H23N5O7S,405.13182,C14H23N5O7S,405.13182,406.13962,404.12402,,CA1169,971-74-4,,,245870,,
5,F,11,CORTISOL 21-ACETATE,O=C(OCC(=O)[C@@]1(O)CC[C@H]2[C@H]4[C@H]([C@@H](O)C[C@]12C)[C@@]3(/C(=C\C(=O)CC3)CC4)C)C,C23H32O6,404.21989,C23H32O6,404.21989,405.22769,403.21209,,C02821,50-03-3,17609,,5744,5769,
5,F,12,INDOLE-3-ACETAMIDE,O=C(Cc1c[nH]c2c1cccc2)N,C10H10N2O,174.07931,C10H10N2O,174.07931,175.08711,173.07151,,C02693,879-37-8,16031,,397,5661,3302
5,G,1,HIPPURATE,C1=CC=C(C=C1)C(=O)NCC(=O)O,C9H9NO3,179.05824,C9H9NO3,179.05824,180.06604,178.05044,,C01586,495-69-2,18089,HMDB00714,464,4741,1301
5,G,2,ETHYLMALONIC ACID,O=C(O)C(C(=O)O)CC,C5H8O4,132.04226,C5H8O4,132.04226,133.05006,131.03446,,CA1366,601-75-2,741548,HMDB00622,11756,,4180
5,G,3,"3,5-DIIODO-L-THYRONINE",[NH3+][C@H](Cc1cc(I)c(Oc2ccc(O)cc2)c(I)c1)C([O-])=O,C15H13I2NO4,524.89341,C15H13I2NO4,524.89341,525.90121,523.88561,,CE6369,1041-01-6,,,92859,,
5,G,4,FUMARATE,C(=CC(=O)O)C(=O)O,C4H4O4,116.01096,C4H4O4,116.01096,117.01876,115.00316,,C00122,110-17-8,18012,HMDB00134,444972,3422,3242
5,G,5,BENZALDEHYDE,O=Cc1ccccc1 ,C7H6O,106.04187,C7H6O,106.04187,107.04967,105.03407,,C00261,100-52-7,17169,HMDB06115,240,3559,58358
5,G,6,4-HYDROXYBENZALDEHYDE,O=Cc1ccc(O)cc1,C7H6O2,122.03678,C7H6O2,122.03678,123.04458,121.02898,,C00633,123-08-0,17597,HMDB11718,126,3906,62451
5,G,7,3-(2-HYDROXYPHENYL)PROPANOATE,O=C(O)CCc1ccccc1O,C9H10O3,166.063,C9H10O3,166.06300,167.07080,165.05520,,C01198,495-78-3,16104,,873,4423,63105
5,G,8,3-METHOXYTYRAMINE,COC1=C(C=CC(=C1)CCN)O,C9H13NO2,203.07131,C9H13NO2,167.09464,168.10244,166.08684,,C05587,1477-68-5,,,1669,7912,
5,G,9,BENZYLAMINE,NCc1ccccc1,C7H9N,107.0735,C7H9N,107.07350,108.08130,106.06570,,C15562,100-46-9,40538,,7504,17396554,24056
5,G,10,2-QUINOLINECARBOXYLIC ACID,C1=CC=C2C(=C1)C=CC(=N2)C(=O)O,C10H7NO2,173.04768,C10H7NO2,173.04768,174.05548,172.03988,,C06325,93-10-7,18386,HMDB00842,7124,8561,5805
5,G,11,SEROTONIN,C1=CC2=C(C=C1O)C(=CN2)CCN,C10H12N2O,211.06382,C10H12N2O,176.09496,177.10276,175.08716,,C00780,153-98-0,28790,,5202,4041,
5,G,12,PTERIN,O=C2\N=C(/Nc1nccnc12)N,C6H5N5O,163.04941,C6H5N5O,163.04941,164.05721,162.04161,,CA1303,2236-60-4,18265,HMDB00802,7300,,5766
5,H,1,4-AMINOBENZOATE,C1=CC(=CC=C1C(=O)O)N,C7H7NO2,137.04768,C7H7NO2,137.04768,138.05548,136.03988,,C00568,150-13-0,30753,HMDB01392,978,3847,3261
5,H,2,2-AMINOPHENOL,Oc1ccccc1N,C6H7NO,109.05276,C6H7NO,109.05276,110.06056,108.04496,,C01987,95-55-6,18112,,491,5084,5805
5,H,3,ACETOIN,CC(C(=O)C)O,C4H8O2,88.05243,C4H8O2,88.05243,89.06023,87.04463,,C00466,513-86-0,15688,HMDB03243,179,3750,103
5,H,4,INDOLE-3-PYRUVIC ACID,O=C(C(O)=O)CC1=CNC2=CC=CC=C21,C11H9NO3,203.05824,C11H9NO3,203.05824,204.06604,202.05044,,CA1282,392-12-1,,,803,,43383
5,H,5,DEHYDRO-L-(+)-ASCORBIC ACID DIMER,C(C(C1C(=O)C(=O)C(=O)O1)O)O,C6H6O6,348.03288,C12H12O12,348.03288,349.04068,347.02508,,C00425,72691-25-9,17242,,440667,,45119
5,H,6,3-AMINO-4-HYDROXYBENZOIC ACID,Oc1c(N)cc(C(=O)O)cc1,C7H7NO3,153.04259,C7H7NO3,153.04259,154.05039,152.03479,,C12115,1571-72-8,,,65083,14262,69314
5,H,7,DIHYDROXYMANDELIC ACID,O=C(O)C(O)c1cc(O)c(O)cc1,C8H8O5,184.03718,C8H8O5,184.03718,185.04498,183.02938,,C07470,775-01-9,27637,HMDB01866,85782,7906,696
5,H,8,ANTHRANILATE,C1=CC=C(C(=C1)C(=O)O)N,C7H7NO2,137.04768,C7H7NO2,137.04768,138.05548,136.03988,,C00108,118-92-3,30754,HMDB01123,227,3408,6018
5,H,9,THIOACETATE,O=C(S)C,C2H4OS,75.99829,C2H4OS,75.99829,77.00609,74.99049,,C01857,507-09-5,16555,,10484,4974,65663
5,H,10,BUTANOATE,CCCC(=O)O,C4H8O2,88.05243,C4H8O2,88.05243,89.06023,87.04463,,C00246,107-92-6,30772,HMDB00039,264,3545,107
5,H,11,INDOLE-3-ACETIC ACID,C1=CC=C2C(=C1)C(=CN2)CC(=O)O,C10H9NO2,196.03745,C10H9NO2,175.06333,176.07113,174.05553,,C00954,6505-45-9,16411,,802,4205,696
5,H,12,5-VALEROLACTONE,O=C1OCCCC1,C5H8O2,100.05243,C5H8O2,100.05243,101.06023,99.04463,,C02240,542-28-9,16545,,10953,5303,65736
6,A,1,"2,5-DIHYDROXYBENZOATE",C1=CC(=C(C=C1O)C(=O)O)O,C7H6O4,154.02661,C7H6O4,154.02661,155.03441,153.01881,,C00628,490-79-9,17189,HMDB00152,3469,3901,618
6,A,2,2-METHYLMALEATE,CC(=CC(=O)O)C(=O)O,C5H6O4,130.02661,C5H6O4,130.02661,131.03441,129.01881,,C02226,498-23-7,17626,HMDB00634,643798,5291,5607
6,A,3,HYDROQUINONE,C1=CC(=CC=C1O)O,C6H6O2,110.03678,C6H6O2,110.03678,111.04458,109.02898,,C00530,123-31-9,17594,HMDB02434,785,3812,6681
6,A,4,DETHIOBIOTIN,CC1C(NC(=O)N1)CCCCCC(=O)O,C10H18N2O3,214.13174,C10H18N2O3,214.13174,215.13954,213.12394,,C01909,533-48-2,16691,HMDB03581,445027,5017,3351
6,A,5,3-METHYL-2-OXOVALERIC ACID,C[C@H](C(C(=O)O)=O)CC,C6H10O3,130.063,C6H10O3,130.06300,131.07080,129.05520,,C00671,1460-34-0,28654,HMDB00491,47,6284,5478
6,A,6,ALPHA-KETOGLUTARIC ACID,C(CC(=O)O)C(=O)C(=O)O,C5H6O5,166.99565,C5H6O5,146.02153,147.02933,145.01373,,C00026,22202-68-2,30915,,51,3328,
6,A,7,N-ACETYLSEROTONIN,CC(=O)NCCC1=CNC2=C1C=C(C=C2)O,C12H14N2O2,218.10553,C12H14N2O2,218.10553,219.11333,217.09773,,C00978,1210-83-9,17697,HMDB01238,903,4227,366
6,A,8,3-METHYLBUTANAL,O=CCC(C)C,C5H10O,86.07317,C5H10O,86.07317,87.08097,85.06537,,C07329,590-86-3,16638,HMDB06478,11552,9537,58421
6,A,9,ITACONATE,C=C(CC(=O)O)C(=O)O,C5H6O4,130.02661,C5H6O4,130.02661,131.03441,129.01881,,C00490,97-65-4,30838,HMDB02092,811,3773,6483
6,A,10,AZELAIC ACID,C(CCCC(=O)O)CCCC(=O)O,C9H16O4,188.10486,C9H16O4,188.10486,189.11266,187.09706,,C08261,123-99-9,48131,HMDB00784,2266,10460,5750
6,A,11,MONO-METHYL GLUTARATE,O=C(O)CCCC(=O)OC,C6H10O4,146.05791,C6H10O4,146.05791,147.06571,145.05011,,CA1015,1501-27-5,1007322,HMDB00858,73917,,5821
6,A,12,2-METHYLGLUTARIC ACID,O=C(O)CCC(C(=O)O)C,C6H10O4,146.05791,C6H10O4,146.05791,147.06571,145.05011,,CA1107,18069-17-5,,,12046,,
6,B,1,PHENYLACETALDEHYDE,O=CCc1ccccc1,C8H8O,120.05752,C8H8O,120.05752,121.06532,119.04972,,C00601,122-78-1,16424,HMDB06236,998,3876,58372
6,B,2,2-METHYLBUTANAL,O=CC(C)CC,C5H10O,86.07317,C5H10O,86.07317,87.08097,85.06537,,C02223,96-17-3,16182,,7284,5288,65731
6,B,3,PHENYL ACETATE,CC(=O)OC1=CC=CC=C1,C8H8O2,136.05243,C8H8O2,136.05243,137.06023,135.04463,,C00548,122-79-2,8082,,31229,3829,65519
6,B,4,DIACETYL,CC(=O)C(=O)C,C4H6O2,86.03678,C4H6O2,86.03678,87.04458,85.02898,,C00741,431-03-8,16583,HMDB03407,650,4004,6921
6,B,5,PYRUVATE,CC(=O)C(=O)O,C3H4O3,88.01605,C3H4O3,88.01605,89.02385,87.00825,,C00022,127-17-3,32816,HMDB00243,1060,3324,117
6,B,6,TRANS-CINNAMALDEHYDE,C1=CC=C(C=C1)C=CC=O,C9H8O,132.05752,C9H8O,132.05752,133.06532,131.04972,,C00903,14371-10-9,16731,,637511,4158,6931
6,B,7,"2,6-DIHYDROXYPYRIDINE",c1([nH]c(=O)ccc1)O,C5H5NO2,147.00871,C5H5NO2,111.03202,112.03982,110.02422,,C03056,10357-84-3,17681,,69371,5956,
6,B,8,PHENETHYLAMINE,NCCc1ccccc1,C8H11N,121.08915,C8H11N,121.08915,122.09695,120.08135,,C05332,64-04-0,18397,HMDB12275,1001,7711,
6,B,9,METHYL ACETOACETATE,CC(=O)CC(=O)OC,C5H8O3,116.04735,C5H8O3,116.04735,117.05515,115.03955,,CA1265,105-45-3,,HMDB00310,7757,,5299
6,B,10,SUBERIC ACID,C(CCCC(=O)O)CCC(=O)O,C8H14O4,174.08921,C8H14O4,174.08921,175.09701,173.08141,,C08278,505-48-6,9300,HMDB00893,10457,10476,4243
6,B,11,ADIPIC ACID,O=C(O)CCCCC(=O)O,C6H10O4,146.05791,C6H10O4,146.05791,147.06571,145.05011,,CA1042,124-04-9 ,,,196,,115
6,B,12,GERANYL PYROPHOSPHATE,CC(=CCCC(=CCOP(=O)(O)OP(=O)(O)O)\C)C,C10H20O7P2,368.17155,C10H32N3O7P2,368.17155,369.17935,367.16375,,C00341,763-10-0,17211,HMDB01285,445995,3634,6134
6,C,1,N-ACETYL-L-LEUCINE,O=C(N[C@H](C(=O)O)CC(C)C)C,C8H15NO3,173.10519,C8H15NO3,173.10519,174.11299,172.09739,,C02710,1188-21-2,17786,HMDB11756,70912,5673,43866
6,C,2,"2',4'-DIHYDROXYACETOPHENONE",O=C(c1ccc(O)cc1O)C,C8H8O3,152.04735,C8H8O3,152.04735,153.05515,151.03955,,C03663,89-84-9,18414,,6990,6441,66018
6,C,3,BENZYL ALCOHOL,C1=CC=C(C=C1)CO,C7H8O,108.05752,C7H8O,108.05752,109.06532,107.04972,,C00556,100-51-6,17987,HMDB03119,244,3836,
6,C,4,2-OXOADIPATE,C(CC(=O)C(=O)O)CC(=O)O,C6H8O5,160.03718,C6H8O5,160.03718,161.04498,159.02938,,C00322,3184-35-8,15753,HMDB00225,71,3616,5234
6,C,5,METHYL INDOLE-3-ACETATE,COC(Cc(c[nH]1)c2c1cccc2)=O,C11H11NO2,189.07898,C11H11NO2,189.07898,190.08678,188.07118,,CA1231,1912-33-0,,,74706,,86457
6,C,6,PROPYNOATE,O=C(C#C)O,C3H2O2,70.00548,C3H2O2,70.00548,71.01328,68.99768,,C00804,471-25-0,33199,HMDB06804,10110,4062,4117
6,C,7,3-METHOXY-4-HYDROXYMANDELATE,COC1=C(C=CC(=C1)C(C(=O)O)O)O,C9H10O5,198.05283,C9H10O5,198.05283,199.06063,197.04503,,C05584,55-10-7,20106,HMDB00291,736172,7910,697
6,C,8,HOMOVANILLATE,COC1=C(C=CC(=C1)CC(=O)O)O,C9H10O4,182.05791,C9H10O4,182.05791,183.06571,181.05011,,C05582,306-08-1,545959,HMDB00118,1738,7908,971
6,C,9,4-QUINOLINECARBOXYLIC ACID,O=C(O)c1c2ccccc2ncc1,C10H7NO2,173.04768,C10H7NO2,173.04768,174.05548,172.03988,,C06414,486-74-8,18311,,10243,8649,66397
6,C,10,(S)-1-PHENYLETHANOL,OC(c1ccccc1)C,C8H10O,122.07317,C8H10O,122.07317,123.08097,121.06537,,C07112,1445-91-6,16346,,443135,13523,69009
6,C,11,"1-METHYL-6,7-DIHYDROXY-1,2,3,4-TETRAHYDROISOQUINOLINE",c12c(cc(c(c1)O)O)[C@@H](NCC2)C,C10H13NO2,258.01297,C10H13NO2,179.09464,180.10244,178.08684,,C09642,59709-57-8,,,91588,11832,