PLATE,NROW,NCOL,CNAME,SMILES,FORMULA,MW (as put into the well),Formula (as seen in MS),Neutral mass,M+H,M-H,CHARGE,PARENT_CID(KEGG),CAS,CHEBI,HMDB,PC_CID,PC_SID,METLIN_ID
7,F,11,RAC-GLYCEROL 1-MYRISTATE,O=C(OCC(O)CO)CCCCCCCCCCCCC,C17H34O4,302.24571,C17H34O4,302.24571,303.25351,301.23791,,CA1370,75685-84-6,,,79050,,
7,F,12,TRICOSANOIC ACID,O=C(O)CCCCCCCCCCCCCCCCCCCCCC,C23H46O2,354.34978,C23H46O2,354.34978,355.35758,353.34198,,CA1269,2433-96-7,42394,HMDB01160,17085,,4211
7,G,1,FARNESYL DIPHOSPHATE,C(O[P](O[P](O)(O)=O)(O)=O)C=C(CCC=C(CCC=C(C)C)C)C,C15H28O7P2,382.13103,C20H32O4,382.13103,383.13883,381.12323,,C00448,372-97-4,17407,HMDB00961,445713,2699,403
7,G,2,CORTISONE,[C@H]34[C@H]2[C@@H]([C@@]1(C(=CC(=O)CC1)CC2)C)C(=O)C[C@@]3([C@](C(CO)=O)(O)CC4)C,C21H28O5,360.19368,C21H28O5,360.19368,361.20148,359.18588,,C00762,53-06-5,16962,HMDB02802,222786,4024,271
7,G,3,DECANOATE,CCCCCCCCCC(=O)O,C10H20O2,172.14633,C10H20O2,172.14633,173.15413,171.13853,,C01571,334-48-5,30813,HMDB00511,2969,4728,336
7,G,4,CORTICOSTERONE,CC12CCC(=O)C=C1CCC3C2C(CC4(C3CCC4C(=O)CO)C)O,C21H30O4,346.21441,C21H30O4,346.21441,347.22221,345.20661,,C02140,50-22-6,16827,HMDB01547,5753,5219,6314